ITEM: TIMESTEP 
0 
ITEM: NUMBER OF ATOMS 
432 
ITEM: BOX BOUNDS 
0.000000e+00 1.790588e+00 xlo xhi 
0.000000e+00 1.790588e+00 xlo xhi 
0.000000e+00 3.581177e+00 xlo xhi 
ITEM: ATOMS id type x y z 
0 0 1.666449e+00 6.522158e-01 1.440079e+00 
1 1 1.705741e+00 1.146040e-01 7.658178e-01 
2 2 1.616121e+00 3.462444e-01 1.626672e-01 
3 3 1.232491e+00 6.908927e-01 9.126848e-02 
4 4 1.000473e+00 9.688182e-01 3.104334e+00 
5 5 1.662710e+00 1.771196e+00 1.900176e+00 
6 6 5.316103e-01 4.832089e-01 8.545986e-01 
7 7 5.301191e-01 1.004165e+00 1.220412e+00 
8 8 2.478011e-01 4.630966e-01 1.076343e+00 
9 9 3.877735e-01 9.621247e-01 3.161308e+00 
10 10 1.102961e+00 1.106642e+00 1.690084e+00 
11 11 8.015659e-01 5.446152e-01 3.176286e+00 
12 12 1.250810e+00 1.543178e-01 5.248248e-02 
13 13 2.000947e-01 6.693957e-01 3.524442e+00 
14 14 8.777655e-02 1.186615e+00 1.753108e+00 
15 15 3.588411e-01 9.148586e-01 1.594100e+00 
16 16 1.158319e+00 4.875613e-01 2.931110e+00 
17 17 1.228568e+00 1.361415e+00 2.246745e+00 
18 18 1.161497e+00 9.440799e-01 2.880529e+00 
19 19 1.719573e+00 9.697676e-01 3.153285e+00 
20 20 9.986010e-01 6.428100e-02 3.135928e-01 
21 21 9.765211e-02 3.487634e-01 1.389358e+00 
22 22 5.256583e-01 7.476122e-01 6.470311e-02 
23 23 6.340960e-01 1.339467e+00 1.274481e+00 
24 24 1.435927e+00 5.842720e-01 1.680099e+00 
25 25 1.552734e+00 5.497033e-01 1.976669e+00 
26 26 1.559174e-01 1.117223e+00 3.530826e+00 
27 27 4.956204e-02 1.519118e+00 1.397353e+00 
28 28 1.624206e+00 1.251083e-01 1.281059e+00 
29 29 1.243837e+00 4.296451e-01 8.248883e-01 
30 30 1.423549e+00 1.534117e+00 3.522911e+00 
31 31 7.242685e-01 1.383019e+00 3.531025e+00 
32 32 8.607111e-01 1.688074e+00 5.705421e-01 
33 33 3.833670e-01 4.985549e-01 2.353116e+00 
34 34 6.765889e-01 2.418596e-01 3.317822e+00 
35 35 5.210247e-01 7.444950e-01 3.459143e+00 
36 36 1.867715e-01 3.634928e-02 1.026392e+00 
37 37 3.260685e-01 7.704665e-01 1.017518e-01 
38 38 1.085091e+00 1.223799e+00 3.016468e+00 
39 39 4.979446e-01 1.500627e+00 3.224678e+00 
40 40 8.317507e-01 7.963889e-01 2.901866e+00 
41 41 3.541980e-01 1.374405e+00 1.320541e-01 
42 42 1.431757e+00 1.633373e+00 3.305080e+00 
43 43 1.563840e+00 5.544508e-02 2.683998e+00 
44 44 8.020217e-01 6.803738e-01 8.794806e-01 
45 45 1.439499e+00 8.775991e-01 1.946899e+00 
46 46 1.502331e+00 9.303877e-01 2.946227e+00 
47 47 8.068736e-01 1.658615e-01 2.173947e+00 
48 48 1.577805e+00 1.293391e+00 1.305102e+00 
49 49 5.713147e-01 1.601468e+00 1.269549e+00 
50 50 7.839326e-01 1.653638e+00 4.500007e-02 
51 51 3.503576e-01 4.614075e-01 1.945507e+00 
52 52 2.901106e-01 3.173281e-01 6.518973e-01 
53 53 4.400359e-01 7.703610e-02 3.537984e+00 
54 54 1.443903e+00 2.818595e-01 2.544234e+00 
55 55 6.876740e-01 1.618094e+00 2.494032e+00 
56 56 1.316190e+00 7.842424e-01 2.490050e+00 
57 57 2.021775e-01 1.557765e+00 3.508531e+00 
58 58 1.467929e+00 1.020068e+00 3.359781e+00 
59 59 1.783148e+00 6.771631e-02 2.078401e+00 
60 60 8.051014e-01 3.447289e-01 2.298738e+00 
61 61 1.006505e+00 1.338734e+00 3.470548e+00 
62 62 6.562125e-01 4.809526e-01 5.625962e-01 
63 63 1.261059e+00 1.286409e+00 3.265211e-01 
64 64 9.372853e-01 9.790021e-01 5.200747e-01 
65 65 1.309382e+00 1.440131e-01 1.125176e+00 
66 66 1.534447e+00 1.628972e+00 3.617524e-01 
67 67 1.435223e+00 6.187869e-01 2.607619e+00 
68 68 3.915262e-01 6.285786e-01 3.530206e+00 
69 69 4.950720e-01 1.742559e+00 2.000328e-01 
70 70 9.303345e-01 4.573541e-01 2.882819e+00 
71 71 1.594897e+00 1.147677e+00 2.391767e+00 
72 72 1.721961e-01 1.120884e-01 2.465095e-01 
73 73 1.484077e+00 5.099690e-01 2.279011e+00 
74 74 5.246461e-01 1.588738e+00 3.386279e+00 
75 75 1.213216e+00 7.240759e-04 3.526232e+00 
76 76 5.414530e-01 1.747612e+00 8.043808e-01 
77 77 6.659379e-01 1.082334e+00 2.655791e+00 
78 78 1.577822e+00 1.012994e+00 4.660457e-02 
79 79 4.361859e-01 7.815732e-01 2.372233e+00 
80 80 5.492317e-01 1.163650e+00 1.520046e+00 
81 81 1.437917e+00 3.324486e-01 1.404473e+00 
82 82 1.728690e+00 3.786760e-01 1.728551e+00 
83 83 1.670475e+00 1.459615e+00 1.590653e+00 
84 84 1.638424e+00 1.486469e+00 5.500114e-01 
85 85 9.711895e-01 1.568167e-01 3.498691e+00 
86 86 4.326651e-01 6.625927e-01 9.608780e-01 
87 87 2.825454e-01 1.296058e+00 1.795860e+00 
88 88 1.697848e+00 1.163091e+00 8.587353e-01 
89 89 1.243031e+00 3.537514e-02 3.233170e+00 
90 90 1.723471e+00 1.260852e-01 2.872728e+00 
91 91 1.066865e+00 7.418702e-03 2.734099e+00 
92 92 7.170842e-01 1.674682e+00 3.235144e+00 
93 93 7.309320e-01 3.304558e-01 3.097224e+00 
94 94 4.807123e-01 1.659461e+00 4.576009e-01 
95 95 3.052255e-01 1.299557e+00 2.477349e+00 
96 96 9.560199e-01 6.275413e-01 2.420743e+00 
97 97 9.455172e-01 1.173171e+00 8.178252e-01 
98 98 6.539097e-01 1.183817e+00 3.297304e-01 
99 99 1.392175e+00 1.475714e+00 3.036785e+00 
100 100 4.234234e-01 7.647994e-01 2.149245e+00 
101 101 1.121752e+00 1.788008e+00 1.316181e+00 
102 102 9.746523e-01 1.047286e-01 2.359902e+00 
103 103 8.148389e-01 7.076855e-01 2.305053e+00 
104 104 1.267464e+00 2.075268e-01 3.067140e+00 
105 105 1.303762e+00 1.048800e+00 1.943561e+00 
106 106 4.337889e-01 7.058414e-01 1.763280e+00 
107 107 1.204251e+00 1.404852e+00 1.187632e+00 
108 108 4.758738e-01 9.725351e-01 1.038580e+00 
109 109 7.863917e-01 1.032118e+00 1.266796e+00 
110 110 1.521031e+00 6.448819e-01 1.299093e+00 
111 111 7.148413e-02 1.389689e+00 5.395075e-01 
112 112 5.773087e-01 3.389719e-01 2.997256e+00 
113 113 1.350963e+00 9.439375e-01 3.430698e-01 
114 114 6.670086e-01 1.752581e+00 1.549209e+00 
115 115 3.153764e-01 9.975661e-01 2.512871e+00 
116 116 3.252070e-01 1.757672e+00 8.399018e-01 
117 117 1.415005e-01 5.686726e-01 1.765521e+00 
118 118 9.617977e-01 4.511037e-01 3.452731e+00 
119 119 1.038829e+00 1.380907e+00 1.847700e+00 
120 120 5.207967e-01 1.043279e-01 9.615963e-01 
121 121 9.367516e-01 2.166138e-01 5.068324e-01 
122 122 6.772442e-01 4.433112e-01 1.851726e+00 
123 123 1.392834e+00 6.282696e-01 3.526734e+00 
124 124 3.913188e-03 7.817448e-01 2.514958e+00 
125 125 1.021388e+00 1.174424e+00 2.330086e-01 
126 126 5.144996e-01 1.736481e+00 1.112046e+00 
127 127 1.772987e+00 1.964791e-01 1.413579e+00 
128 128 2.701933e-01 1.242520e-01 3.394076e+00 
129 129 4.525727e-02 5.711624e-03 2.514532e+00 
130 130 1.269199e+00 1.768916e+00 2.770455e+00 
131 131 7.774585e-01 9.045735e-01 3.085054e+00 
132 132 1.152920e+00 1.257471e+00 1.013544e-01 
133 133 6.713507e-01 3.314342e-01 9.220397e-01 
134 134 6.739877e-01 1.150507e+00 3.538086e+00 
135 135 2.216924e-01 4.093395e-01 2.204969e+00 
136 136 4.975059e-01 1.306617e+00 1.968586e+00 
137 137 7.295800e-01 8.195385e-01 4.880080e-02 
138 138 1.743055e+00 7.408526e-01 3.352514e+00 
139 139 1.672095e+00 1.210978e-01 3.452031e+00 
140 140 2.803333e-02 9.925113e-01 3.531280e+00 
141 141 1.295664e+00 1.002697e+00 1.684036e+00 
142 142 9.472465e-01 1.101128e-01 2.894363e+00 
143 143 4.675096e-01 1.016120e+00 3.362237e+00 
144 144 1.111412e+00 8.625435e-01 1.518778e+00 
145 145 9.395770e-02 1.498543e+00 2.189828e+00 
146 146 1.188824e+00 7.515225e-01 1.230962e+00 
147 147 2.711556e-01 9.980996e-01 7.261189e-01 
148 148 1.560221e+00 9.864495e-01 2.074242e+00 
149 149 9.652187e-01 4.576307e-01 1.311003e+00 
150 150 1.408284e+00 1.508288e+00 1.634452e+00 
151 151 7.894606e-01 3.379904e-01 2.628025e+00 
152 152 1.410525e+00 9.919489e-02 3.341456e+00 
153 153 9.449281e-03 1.507005e+00 3.518967e+00 
154 154 1.144349e+00 1.716042e+00 3.271699e-01 
155 155 1.510426e+00 1.437403e+00 3.292450e+00 
156 156 1.675331e+00 1.188463e+00 1.154639e+00 
157 157 2.104585e-02 1.481819e+00 1.955159e-01 
158 158 9.703513e-01 8.037466e-01 1.225941e+00 
159 159 1.443133e+00 9.430919e-01 1.219440e+00 
160 160 1.021197e+00 1.282393e+00 4.289931e-01 
161 161 1.190310e+00 2.351473e-01 2.337187e+00 
162 162 1.056404e-01 3.115275e-01 1.011143e+00 
163 163 2.031370e-01 5.491936e-01 3.282649e-01 
164 164 2.625105e-01 1.720154e+00 2.500938e-01 
165 165 1.755585e+00 1.495205e-01 1.772829e+00 
166 166 4.748075e-01 6.587010e-01 1.154862e+00 
167 167 5.429561e-01 1.353718e+00 7.328719e-01 
168 168 1.196465e+00 1.133877e+00 1.029412e+00 
169 169 3.677518e-01 8.681336e-01 2.716515e-01 
170 170 1.283897e+00 1.545296e+00 1.998812e+00 
171 171 6.750278e-01 1.403484e+00 2.969419e+00 
172 172 1.297172e+00 5.404033e-01 3.076056e+00 
173 173 1.554134e+00 6.896562e-01 2.793525e+00 
174 174 2.508989e-01 1.243200e+00 1.139454e+00 
175 175 1.445755e+00 1.184507e+00 8.321735e-01 
176 176 1.633522e+00 1.189632e+00 2.935606e+00 
177 177 7.694788e-01 2.793844e-01 3.510402e-01 
178 178 1.429729e+00 3.784616e-01 2.938047e+00 
179 179 1.434240e+00 2.676242e-02 3.080202e+00 
180 180 1.610661e+00 2.836658e-01 2.653079e+00 
181 181 6.138971e-01 1.191716e-01 2.182584e+00 
182 182 1.349110e+00 5.561526e-01 2.046391e+00 
183 183 1.551538e+00 8.580707e-01 2.490590e+00 
184 184 8.612239e-01 1.371891e+00 1.066324e+00 
185 185 6.746844e-01 3.124767e-01 6.809295e-01 
186 186 1.501574e+00 2.418171e-01 3.516933e+00 
187 187 1.664925e+00 1.625697e+00 1.292435e+00 
188 188 1.429897e+00 2.827286e-01 1.953493e+00 
189 189 5.549730e-01 3.279019e-01 2.267506e+00 
190 190 6.440866e-01 5.551645e-01 3.280127e+00 
191 191 1.682201e+00 4.216754e-01 1.033565e+00 
192 192 5.450477e-01 5.512731e-01 1.990596e+00 
193 193 9.933033e-01 7.546951e-01 1.871863e+00 
194 194 8.593447e-01 8.519290e-01 4.097703e-01 
195 195 1.640192e+00 7.260272e-01 3.493767e+00 
196 196 6.061357e-02 5.020652e-01 2.445278e+00 
197 197 8.999050e-01 1.745522e+00 3.360236e+00 
198 198 2.977831e-01 1.621233e+00 1.463605e+00 
199 199 6.620289e-01 1.525511e-01 1.665668e+00 
200 200 7.070840e-01 1.604212e+00 1.832734e+00 
201 201 1.608129e+00 1.166489e+00 1.634358e+00 
202 202 9.271399e-01 4.082735e-01 7.464281e-01 
203 203 2.276144e-01 7.954280e-01 3.194397e+00 
204 204 1.137821e+00 3.448989e-01 5.556961e-01 
205 205 8.180899e-01 1.752713e+00 2.371869e+00 
206 206 1.220878e+00 1.361668e+00 1.750066e+00 
207 207 4.972774e-02 4.664936e-01 2.182081e+00 
208 208 1.168100e+00 6.134196e-01 2.526070e+00 
209 209 4.275681e-01 1.370653e+00 2.676033e+00 
210 210 8.136793e-01 3.990038e-01 1.030430e+00 
211 211 1.679457e+00 6.012368e-01 2.674943e+00 
212 212 1.623075e+00 6.365404e-01 1.665766e+00 
213 213 1.139732e+00 9.044890e-01 1.045468e+00 
214 214 1.358308e+00 5.988416e-01 7.653942e-01 
215 215 9.901575e-01 1.291106e+00 3.152266e+00 
216 216 1.203810e+00 7.406164e-01 2.708329e+00 
217 217 5.906766e-01 5.671347e-02 4.566189e-02 
218 218 8.693702e-01 8.766800e-01 7.279347e-01 
219 219 1.175737e+00 1.294986e-01 1.611227e+00 
220 220 1.420027e+00 1.732797e+00 3.524594e+00 
221 221 1.332696e+00 4.395584e-01 3.525448e+00 
222 222 5.078815e-01 1.704798e+00 2.931664e+00 
223 223 7.503620e-01 6.841107e-01 1.907660e+00 
224 224 1.101861e+00 5.628443e-01 3.332696e+00 
225 225 6.610838e-01 9.192749e-01 8.889075e-01 
226 226 8.411170e-01 1.387716e+00 2.487387e+00 
227 227 8.216593e-01 5.810895e-01 3.521146e+00 
228 228 7.196113e-01 8.250139e-01 3.446030e+00 
229 229 1.455020e+00 9.107560e-01 1.040463e+00 
230 230 1.357789e+00 8.304438e-01 2.872204e+00 
231 231 1.524412e+00 1.422021e+00 2.607721e+00 
232 232 1.427233e+00 1.545855e+00 1.408881e+00 
233 233 9.490840e-01 1.688370e+00 3.851354e-01 
234 234 9.281113e-02 1.854171e-01 2.277050e+00 
235 235 1.586403e-01 8.184178e-01 2.785989e+00 
236 236 2.731534e-01 1.117888e+00 1.936098e+00 
237 237 1.530856e+00 1.279683e+00 2.771016e+00 
238 238 1.680332e+00 2.760906e-01 2.437951e+00 
239 239 1.385264e+00 9.815290e-01 8.190432e-01 
240 240 1.629446e+00 1.417887e+00 1.015190e+00 
241 241 1.402304e+00 1.770149e+00 1.356789e+00 
242 242 6.803377e-01 1.283157e+00 1.867287e+00 
243 243 9.146995e-01 1.173235e+00 1.607632e+00 
244 244 1.029614e+00 1.320552e+00 2.181151e+00 
245 245 8.871663e-01 1.358158e+00 2.893418e+00 
246 246 6.581947e-01 9.726008e-01 6.486406e-01 
247 247 1.238733e+00 9.231490e-02 2.262414e-01 
248 248 1.134211e+00 6.124385e-01 3.532486e+00 
249 249 1.298103e+00 2.192771e-01 1.777625e+00 
250 250 1.653137e+00 5.450844e-01 3.293414e+00 
251 251 2.611153e-01 8.614423e-01 2.352092e+00 
252 252 1.650922e+00 1.013477e-01 1.509412e+00 
253 253 7.358548e-01 7.719636e-01 6.682319e-01 
254 254 9.105477e-01 9.812617e-02 6.841056e-01 
255 255 1.461082e+00 9.263913e-02 4.366559e-02 
256 256 9.334101e-01 3.490224e-01 3.059578e+00 
257 257 1.514124e+00 7.743588e-01 2.863036e-01 
258 258 1.453089e+00 8.164743e-01 6.907928e-01 
259 259 6.394008e-02 2.562892e-01 6.493979e-01 
260 260 1.226711e+00 9.250225e-01 3.330530e+00 
261 261 1.733660e+00 1.746822e+00 1.038904e+00 
262 262 1.488531e+00 4.294511e-01 5.542079e-01 
263 263 7.101417e-01 9.916882e-01 1.719379e+00 
264 264 1.139735e+00 1.489543e+00 2.895789e+00 
265 265 1.895583e-02 2.335528e-01 1.999889e+00 
266 266 1.204276e-01 1.606827e+00 3.703120e-01 
267 267 9.913515e-01 4.956004e-03 3.072860e+00 
268 268 1.658500e+00 4.527218e-01 1.422747e+00 
269 269 7.848603e-01 1.750530e-01 1.195707e+00 
270 270 8.954202e-01 6.459047e-01 1.702500e+00 
271 271 1.403859e+00 7.424768e-01 3.152086e+00 
272 272 5.071896e-01 1.478914e+00 2.496002e+00 
273 273 9.980325e-01 1.373272e+00 1.590021e+00 
274 274 5.037614e-02 2.588593e-01 2.593858e+00 
275 275 7.701343e-01 1.204881e+00 1.412538e+00 
276 276 6.181928e-01 6.997364e-01 1.733085e+00 
277 277 7.957727e-01 1.235156e+00 1.152346e-01 
278 278 8.810651e-01 1.252622e+00 1.796108e+00 
279 279 1.274382e+00 5.254029e-01 6.002630e-01 
280 280 1.573459e+00 6.703056e-01 2.215759e+00 
281 281 1.154115e+00 7.341725e-01 7.002910e-01 
282 282 1.587259e+00 6.481262e-01 3.112233e+00 
283 283 1.697503e+00 1.217686e+00 3.524553e+00 
284 284 1.694386e+00 7.324966e-01 1.905927e+00 
285 285 1.665056e+00 5.045923e-01 6.166006e-01 
286 286 2.579768e-01 1.841154e-01 4.947631e-02 
287 287 2.821138e-01 1.740119e+00 3.513763e+00 
288 288 2.219525e-01 9.997761e-01 1.750698e+00 
289 289 1.689212e+00 8.753062e-01 6.680581e-01 
290 290 1.158041e+00 1.416721e+00 2.526268e-01 
291 291 1.686170e-01 9.501839e-02 2.678560e+00 
292 292 1.634118e+00 1.000748e+00 1.056941e+00 
293 293 1.568874e+00 1.481319e+00 7.609183e-01 
294 294 1.559484e-01 2.471857e-01 2.848432e+00 
295 295 4.262796e-01 1.568976e+00 3.529962e+00 
296 296 1.713675e+00 3.360601e-01 1.280816e+00 
297 297 1.785411e+00 9.965132e-01 2.319653e+00 
298 298 9.444497e-01 1.558939e+00 3.230041e+00 
299 299 1.335323e-01 7.441750e-02 1.836675e+00 
300 300 4.388465e-01 1.140200e+00 8.714876e-01 
301 301 1.080698e+00 1.614922e+00 1.553023e+00 
302 302 2.509088e-01 1.736835e+00 5.566257e-01 
303 303 1.536693e+00 1.706908e-01 1.089495e+00 
304 304 7.647763e-01 1.728364e-01 9.705479e-01 
305 305 1.366427e+00 4.998150e-01 1.322812e+00 
306 306 1.764857e+00 1.117885e+00 1.462297e+00 
307 307 1.383150e+00 1.068604e+00 6.129111e-01 
308 308 1.559251e+00 4.579788e-01 2.760657e+00 
309 309 1.259163e+00 1.748844e+00 3.038225e+00 
310 310 4.267223e-02 7.862305e-01 1.044128e+00 
311 311 1.085457e+00 8.982161e-01 2.258745e+00 
312 312 1.184807e+00 4.425082e-01 2.143449e+00 
313 313 5.215438e-02 7.592788e-01 4.490716e-01 
314 314 8.409704e-01 9.318133e-01 1.441346e+00 
315 315 7.252720e-01 1.323398e-01 2.145923e-01 
316 316 1.233237e+00 1.038411e+00 3.534308e+00 
317 317 1.621668e+00 1.530419e+00 3.520314e+00 
318 318 1.009537e+00 8.295900e-01 9.361190e-01 
319 319 8.419025e-01 8.208864e-02 1.546409e+00 
320 320 2.555188e-01 2.845095e-01 3.111384e+00 
321 321 3.116404e-01 1.439786e+00 9.339925e-01 
322 322 1.724367e+00 1.831095e-01 1.094111e+00 
323 323 8.271515e-01 1.520990e+00 8.137057e-01 
324 324 2.252317e-01 1.603241e+00 1.286667e+00 
325 325 8.561342e-01 6.004432e-02 2.579263e+00 
326 326 1.332565e+00 4.234984e-01 1.821995e+00 
327 327 1.161031e+00 7.708122e-01 3.089302e+00 
328 328 2.540629e-01 1.246910e-02 1.200440e+00 
329 329 5.824270e-01 9.251740e-01 2.538822e+00 
330 330 5.464146e-01 1.729396e-01 7.294057e-01 
331 331 1.231283e+00 1.741934e+00 1.491215e+00 
332 332 6.822177e-01 8.918037e-01 1.890789e+00 
333 333 2.153009e-01 1.369139e+00 2.867734e+00 
334 334 1.333693e+00 1.298413e+00 2.074261e+00 
335 335 7.223752e-01 1.266622e+00 8.107277e-01 
336 336 1.195334e+00 1.345142e-01 2.871790e+00 
337 337 1.584698e+00 1.695270e+00 2.420823e+00 
338 338 8.851767e-01 9.410410e-01 2.306879e+00 
339 339 1.702970e+00 1.778643e+00 3.164634e-01 
340 340 3.444817e-01 1.084057e+00 4.138676e-02 
341 341 7.565865e-01 1.479742e+00 5.685819e-01 
342 342 9.913832e-01 1.124198e+00 3.538575e+00 
343 343 8.592280e-01 1.569694e+00 2.967626e+00 
344 344 1.312650e+00 9.154773e-01 1.439597e+00 
345 345 8.665775e-01 4.694568e-01 1.811385e-01 
346 346 1.102594e-01 6.345418e-01 1.538181e+00 
347 347 7.469664e-02 2.822078e-02 3.415110e+00 
348 348 1.304026e+00 1.307457e+00 9.170179e-01 
349 349 4.537331e-02 5.122589e-01 2.666335e+00 
350 350 1.204946e+00 7.550273e-01 3.943108e-01 
351 351 1.138688e+00 5.206807e-01 2.315090e+00 
352 352 1.749555e+00 1.487465e+00 3.135506e+00 
353 353 7.671850e-01 3.436847e-01 2.045820e+00 
354 354 4.729970e-01 5.005122e-01 1.461188e+00 
355 355 4.566885e-01 1.125287e+00 6.857206e-01 
356 356 3.715637e-01 7.797228e-01 2.561433e+00 
357 357 4.777042e-01 1.133852e+00 2.380655e+00 
358 358 1.611596e+00 1.101603e+00 1.322213e+00 
359 359 9.408479e-02 2.238908e-01 1.188780e+00 
360 360 1.290711e+00 1.065710e+00 2.668412e+00 
361 361 4.816359e-02 1.681205e+00 5.784928e-01 
362 362 1.780864e-01 6.949534e-01 2.467082e+00 
363 363 1.718194e+00 1.428213e+00 1.208771e+00 
364 364 2.409512e-01 1.648805e+00 2.714433e+00 
365 365 1.122305e+00 3.781580e-01 3.101487e+00 
366 366 1.276491e+00 1.479739e+00 2.702744e+00 
367 367 1.019698e+00 7.978031e-01 2.096688e+00 
368 368 1.372715e+00 7.375268e-01 2.222500e+00 
369 369 1.788359e+00 1.596762e+00 1.970866e+00 
370 370 3.663442e-01 1.212490e+00 2.927387e+00 
371 371 9.923927e-01 1.520809e-01 2.629329e+00 
372 372 1.015698e+00 8.254611e-01 2.957855e+00 
373 373 9.945615e-01 5.609490e-01 1.889200e+00 
374 374 1.566499e+00 2.768169e-01 3.513491e-01 
375 375 1.435938e+00 3.149794e-01 9.960130e-01 
376 376 3.970759e-01 1.323452e+00 3.180843e-01 
377 377 1.648917e+00 4.147836e-03 3.195899e+00 
378 378 6.921734e-01 3.182835e-02 1.850686e+00 
379 379 1.066028e-01 5.182402e-01 2.989013e+00 
380 380 1.474747e+00 1.153231e+00 3.513560e+00 
381 381 9.582222e-01 1.593522e+00 2.733480e+00 
382 382 5.728738e-01 1.204788e+00 5.110849e-01 
383 383 1.476018e+00 1.416953e+00 2.346094e+00 
384 384 1.120381e+00 9.309179e-01 1.825431e+00 
385 385 2.881197e-01 1.292437e+00 3.536917e+00 
386 386 3.306954e-01 8.034277e-01 3.400301e+00 
387 387 3.502605e-01 1.233148e+00 3.315459e+00 
388 388 2.139543e-01 4.234623e-01 1.603267e+00 
389 389 1.331664e+00 5.366297e-01 2.404062e+00 
390 390 1.671438e+00 3.966199e-01 2.098196e+00 
391 391 1.576992e-01 1.490695e+00 4.826640e-02 
392 392 1.557411e+00 1.681986e+00 1.541232e+00 
393 393 2.857237e-01 7.092565e-01 1.541511e+00 
394 394 1.592992e-02 1.688425e+00 3.173967e+00 
395 395 2.077506e-01 2.190788e-01 1.536297e+00 
396 396 1.150468e+00 4.809285e-01 2.074383e-01 
397 397 9.570813e-01 3.679171e-01 3.491651e-01 
398 398 1.064956e+00 2.576554e-01 2.081339e-01 
399 399 1.539380e+00 1.293404e+00 3.070703e+00 
400 400 2.111896e-01 1.664966e+00 2.059856e+00 
401 401 5.205868e-01 1.680896e+00 1.432843e+00 
402 402 1.589901e-02 2.516191e-01 2.377223e-01 
403 403 8.936038e-01 1.102821e+00 1.041989e+00 
404 404 1.730942e+00 1.039221e+00 2.577768e+00 
405 405 1.224878e+00 1.766091e+00 5.454440e-01 
406 406 1.775269e+00 1.597079e+00 6.492638e-02 
407 407 5.018711e-01 4.019520e-01 6.602372e-01 
408 408 1.003551e-01 3.071272e-01 3.469141e+00 
409 409 4.197472e-01 4.426345e-01 2.182736e+00 
410 410 1.577105e-01 1.160857e+00 5.605408e-01 
411 411 6.569518e-01 1.026758e+00 1.426862e+00 
412 412 3.444446e-02 1.399918e+00 2.625330e+00 
413 413 1.309310e+00 6.202680e-01 2.879124e+00 
414 414 1.321890e+00 2.259456e-01 7.934727e-01 
415 415 1.359425e+00 9.719882e-01 3.180875e+00 
416 416 1.539780e+00 8.463925e-01 5.018066e-01 
417 417 1.390175e+00 1.618944e+00 2.336546e+00 
418 418 4.202747e-02 1.666469e+00 1.757588e+00 
419 419 3.193946e-01 6.120648e-01 3.177530e+00 
420 420 9.655605e-01 7.841709e-01 1.506693e-01 
421 421 1.487818e-01 1.324042e+00 1.962884e-01 
422 422 5.261033e-02 1.020486e+00 2.766591e+00 
423 423 5.226649e-01 1.578664e+00 6.702018e-01 
424 424 1.608377e+00 5.776464e-01 4.316737e-01 
425 425 6.157510e-01 1.086429e+00 3.214479e+00 
426 426 4.338038e-01 1.015881e+00 5.321610e-01 
427 427 2.764855e-01 8.318721e-01 1.861056e+00 
428 428 1.556936e+00 1.197999e+00 1.911648e+00 
429 429 3.889525e-01 1.696773e+00 3.233809e+00 
430 430 6.611408e-02 7.985474e-02 5.483026e-02 
431 431 2.460066e-03 7.174247e-02 3.078787e+00 
